 Gaussian 03, Revision C.02,
 Gaussian 03:  AM64L-G03RevC.02 12-Jun-2004

 -------------------------------
 #p B3LYP/6-311+G** NMR=SPINSPIN
 -------------------------------

 -----
 empty
 -----
 Symbolic Z-matrix:
 Charge =  0 Multiplicity = 1

                         Standard orientation:
 ---------------------------------------------------------------------
 Center     Atomic     Atomic              Coordinates (Angstroms)
 Number     Number      Type              X           Y           Z
 ---------------------------------------------------------------------
    1          1             0       -1.526818    0.449201    0.947791
    2          6             0       -1.484718   -0.025152   -0.039542
    3          1             0       -2.436275   -0.417523   -0.396506
    4          1             0       -0.846916    0.621600   -0.677908
    5          6             0        0.786391    0.556858   -0.039226
    6          1             0        1.699782    1.085351   -0.380795
    7          1             0        0.069469    1.083533    0.582591
    8          8             0        0.991250   -0.649271    0.046178
    9          1             0       -0.699279   -0.818229    0.028016
 ---------------------------------------------------------------------

 SCF Done:  E(RB+HF-LYP) =  -154.991760735     A.U. after   12 cycles

  1  H    Isotropic =    28.9213   Anisotropy =     3.2329

  2  C    Isotropic =   130.4378   Anisotropy =    79.4262

  3  H    Isotropic =    30.0029   Anisotropy =     6.7973

  4  H    Isotropic =    32.3260   Anisotropy =     4.5916

  5  C    Isotropic =   -26.1321   Anisotropy =   197.5208

  6  H    Isotropic =    21.6638   Anisotropy =     2.6431

  7  H    Isotropic =    20.2200   Anisotropy =    14.5406

  8  O    Isotropic =  -495.6885   Anisotropy =  1262.7350

  9  H    Isotropic =    25.9673   Anisotropy =    12.6146

 The electronic state is 1-A.
 Alpha  occ. eigenvalues --  -19.13930 -10.27284 -10.15479  -1.06829  -0.72855
 Alpha  occ. eigenvalues --   -0.64195  -0.52231  -0.45896  -0.44727  -0.40456
 Alpha  occ. eigenvalues --   -0.38108  -0.35595  -0.26249
 Alpha virt. eigenvalues --   -0.07929   0.00393   0.02742   0.03747   0.04721
 Alpha virt. eigenvalues --    0.06295   0.07518   0.08184   0.11739   0.12907
 Alpha virt. eigenvalues --    0.15084   0.17823   0.19316   0.21166   0.21770

 Mulliken atomic charges:
              1
     1  H    0.126247
     2  C   -0.537516
     3  H    0.143296
     4  H    0.103339
     5  C   -0.054378
     6  H    0.132624
     7  H    0.136471
     8  O   -0.234819
     9  H    0.184737
 Sum of Mulliken charges=   0.00000

 Dipole moment (field-independent basis, Debye):
    X=    -0.3735    Y=     2.1573    Z=     0.1106  Tot=     2.1922
 Quadrupole moment (field-independent basis, Debye-Ang):
   XX=   -21.5837   YY=   -21.1221   ZZ=   -20.3638
   XY=     2.7974   XZ=    -0.2777   YZ=     0.5457

 Normal termination of Gaussian 03 at Thu Mar 26 20:00:34 2009.
