 Q-Chem 4.4, Q-Chem, Inc., Pleasanton, CA (2016)
 Q-Chem 4.4.0    for Mac (Intel) OS X

User input:
--------------------------------------------------------------
$comment
Benzene+ ROHF/6-31G*
$end

$molecule
1 2
C
H  1 1.084672
C  1 1.391291 2 120.799401
H  3 1.086372 1 120.612936 2 0.000000 0
C  1 1.391291 2 120.799407 3 -180.000000 0
H  5 1.086371 1 120.612927 2 0.000000 0
C  5 1.453415 1 120.799408 2 -180.000000 0
H  7 1.086371 5 118.587662 1 -180.000000 0
C  7 1.391291 5 120.799405 1 0.000000 0
H  9 1.084672 7 120.799412 5 -180.000000 0
C  9 1.391291 7 118.401191 5 0.000000 0
H  11 1.086372 9 120.612935 7 -180.000000 0
$end

$rem
jobtype             SP
exchange            HF
basis               6-31G*
unrestricted        FALSE
print_general_basis TRUE
print_orbitals      TRUE
$end

--------------------------------------------------------------

             Standard Nuclear Orientation (Angstroms)
    I     Atom           X                Y                Z
 ----------------------------------------------------------------
    1      C       1.4390957445     0.0000000000     0.0000000000
    2      H       2.5237677445     0.0000000000     0.0000000000
    3      C       0.7267078321     1.1950704288     0.0000000000
    4      H       1.2465400525     2.1489984057     0.0000000000
    5      C       0.7267078321    -1.1950704288     0.0000000000
    6      H       1.2465400525    -2.1489984057     0.0000000000
    7      C      -0.7267078321    -1.1950704288     0.0000000000
    8      H      -1.2465400525    -2.1489984057     0.0000000000
    9      C      -1.4390957445     0.0000003260     0.0000000000
   10      H      -2.5237677445     0.0000005286     0.0000000000
   11      C      -0.7267078321     1.1950704288     0.0000000000
   12      H      -1.2465400525     2.1489984057     0.0000000000
 ----------------------------------------------------------------

   13    -230.4072678003      5.09E-06 Convergence criterion met
 Total energy in the final basis set = -230.4072678003

             Orbital Energies (a.u.) and Symmetries
 --------------------------------------------------------------

 Alpha MOs, Restricted
 -- Doubly Occupied --
-11.500 -11.500 -11.499 -11.499 -11.450 -11.450  -1.386  -1.249
  1 Ag    1 B2u   1 B3u   1 B1g   2 B3u   2 Ag    3 Ag    3 B3u
 -1.251  -1.060  -1.049  -0.930  -0.868  -0.850  -0.812  -0.812
  2 B2u   2 B1g   4 Ag    5 Ag    4 B3u   3 B2u   5 B3u   4 B2u
 -0.728  -0.715  -0.736  -0.572
  3 B1g   6 Ag    1 B1u   1 B2g
 -- Singly Occupied (Occupied) --
 -0.578
  1 B3g

 Beta MOs, Restricted
 -- Doubly Occupied --
-11.496 -11.496 -11.495 -11.495 -11.450 -11.450  -1.364  -1.241
  1 Ag    1 B2u   1 B3u   1 B1g   2 B3u   2 Ag    3 Ag    3 B3u
 -1.215  -1.045  -1.036  -0.925  -0.861  -0.842  -0.810  -0.804
  2 B2u   2 B1g   4 Ag    5 Ag    4 B3u   3 B2u   5 B3u   4 B2u
 -0.723  -0.709  -0.654  -0.547
  3 B1g   6 Ag    1 B1u   1 B2g
 -- Singly Occupied (Vacant) --
 -0.256
  1 B3g

          Ground-State Mulliken Net Atomic Charges

     Atom                 Charge (a.u.)
  ----------------------------------------
      1 C                    -0.209861
      2 H                     0.300516
      3 C                    -0.109138
      4 H                     0.313826
      5 C                    -0.109169
      6 H                     0.313825
      7 C                    -0.109135
      8 H                     0.313831
      9 C                    -0.209861
     10 H                     0.300516
     11 C                    -0.109172
     12 H                     0.313820
  ----------------------------------------
  Sum of atomic charges =     1.000000

                    Cartesian Multipole Moments
 -----------------------------------------------------------------
    Charge (ESU x 10^10)
                 4.8032
    Dipole Moment (Debye)
         X       0.0000      Y       0.0000      Z       0.0000
       Tot       0.0000
    Quadrupole Moments (Debye-Ang)
        XX     -21.8165     XY       0.0000     YY     -18.1200
        XZ       0.0000     YZ       0.0000     ZZ     -36.1477

 Total job time:  1.07s(wall), 3.63s(cpu)
        *  Thank you very much for using Q-Chem.  Have a nice day.  *
