============================== echo of input deck ==============================
title "MEA_g2_NWCHEM"

echo

charge 0

geometry
zmatrix
C
C 1 B1
N 2 B2 1 A1
H 3 B3 2 A2 1 D1
H 3 B4 2 A3 1 D2
H 2 B5 1 A4 3 D3
H 2 B6 1 A5 3 D4
H 1 B7 2 A6 3 D5
O 1 B8 2 A7 3 D6
H 9 B9 1 A8 2 D7
H 1 B10 2 A9 3 D8
variables
B1 1.5293223
B2 1.4802482
A1 110.67689
B3 1.0210168
A2 110.47536
D1 -179.07248
B4 1.0215163
A3 110.47961
D2 63.545118
B5 1.0913629
A4 109.91055
D3 122.87896
B6 1.0917984
A5 109.16026
D4 -120.94777
B7 1.0911375
A6 112.51770
D5 168.63456
B8 1.4025542
A7 102.69929
D6 48.714120
B9 0.9572738
A8 102.46462
D7 -26.377073
B10 1.0908388
A9 111.70431
D8 -69.054892
end
end

basis noprint
 * library 3-21G
end

scf
 noprint "final vectors analysis"
 singlet
end
task scf energy

property
  dipole
  mulliken
end
task scf property

task scf freq

================================================================================

 Output coordinates in angstroms (scale by  1.889725989 to convert to a.u.)

  No.       Tag          Charge          X              Y              Z
 ---- ---------------- ---------- -------------- -------------- --------------
    1 C                    6.0000     0.58339695    -0.85706998     0.25548270
    2 C                    6.0000     0.65733767     0.57737106    -0.26962526
    3 N                    7.0000    -0.55926730     1.33375484     0.10305511
    4 H                    1.0000    -0.51353958     2.28615988    -0.26205984
    5 H                    1.0000    -0.63036711     1.41847680     1.11856609
    6 H                    1.0000     1.55394970     1.06765413     0.11349659
    7 H                    1.0000     0.76112846     0.55627311    -1.35627428
    8 H                    1.0000     1.36193786    -1.49624790    -0.16392960
    9 O                    8.0000    -0.69338111    -1.26952303    -0.15302502
   10 H                    1.0000    -1.17102225    -0.44158607    -0.20548888
   11 H                    1.0000     0.65542523    -0.89263605     1.34335965

         Total SCF energy =   -207.929742809996
         Total SCF energy =   -207.929742809996
         Total SCF energy =   -207.929742624584

       Multipole analysis of the density wrt the origin
       ------------------------------------------------

     L   x y z        total         open         nuclear
     -   - - -        -----         ----         -------
     0   0 0 0      0.000000      0.000000     34.000000

     1   1 0 0      0.800710      0.000000      0.000000
     1   0 1 0      1.313399      0.000000      0.000000
     1   0 0 1      0.349354      0.000000      0.000000

     2   2 0 0    -19.684364      0.000000     64.212233
     2   1 1 0     -2.022762      0.000000     -3.548716
     2   1 0 1     -0.692855      0.000000     -0.901160
     2   0 2 0    -19.339663      0.000000    155.955039
     2   0 1 1      0.020997      0.000000     -0.858432

 Zero-Point correction to Energy  =   66.301 kcal/mol  (  0.105658 au)
 Thermal correction to Energy     =   69.221 kcal/mol  (  0.110311 au)
 Thermal correction to Enthalpy   =   69.814 kcal/mol  (  0.111255 au)
 Total Entropy                    =   68.404 cal/mol-K
   - Translational                =   38.230 cal/mol-K (mol. weight =  61.0528)
   - Rotational                   =   24.146 cal/mol-K (symmetry #  =        1)
   - Vibrational                  =    6.028 cal/mol-K
   - Translational                  =    2.979 cal/mol-K
   - Rotational                     =    2.979 cal/mol-K
   - Vibrational                    =    9.428 cal/mol-K
 P.Frequency        0.00        0.00        0.00        0.00        0.00        0.00
 P.Frequency      175.12      333.81      380.75      595.03      651.71      907.93
 P.Frequency      969.33     1089.19     1128.02     1160.15     1202.64     1325.97
 P.Frequency     1405.36     1441.20     1531.60     1564.98     1665.75     1700.45
 P.Frequency     1722.53     1875.95     3115.37     3134.68     3154.54     3170.19
 P.Frequency     3497.70     3558.45     3942.25

 Normal Eigenvalue ||           Projected Infra Red Intensities
  Mode   [cm**-1]  || [atomic units] [(debye/angs)**2] [(KM/mol)] [arbitrary]
 ------ ---------- || -------------- ----------------- ---------- -----------
    1        0.000 ||    0.000016           0.000         0.015       0.004
    2        0.000 ||    0.002710           0.063         2.642       0.744
    3        0.000 ||    0.009876           0.228         9.628       2.713
    4        0.000 ||    0.003477           0.080         3.389       0.955
    5        0.000 ||    0.001548           0.036         1.509       0.425
    6        0.000 ||    0.000950           0.022         0.926       0.261
    7      175.123 ||    0.007109           0.164         6.930       1.953
    8      333.806 ||    0.016263           0.375        15.854       4.468
    9      380.747 ||    0.000768           0.018         0.748       0.211
   10      595.027 ||    0.038406           0.886        37.440      10.551
   11      651.708 ||    0.175015           4.038       170.613      48.079
   12      907.930 ||    0.026350           0.608        25.688       7.239
   13      969.326 ||    0.058326           1.346        56.859      16.023
   14     1089.192 ||    0.065438           1.510        63.792      17.977
   15     1128.022 ||    0.010665           0.246        10.397       2.930
   16     1160.153 ||    0.115862           2.673       112.948      31.829
   17     1202.639 ||    0.018942           0.437        18.466       5.204
   18     1325.970 ||    0.003592           0.083         3.501       0.987
   19     1405.359 ||    0.016789           0.387        16.367       4.612
   20     1441.197 ||    0.008685           0.200         8.466       2.386
   21     1531.604 ||    0.002121           0.049         2.068       0.583
   22     1564.978 ||    0.002229           0.051         2.173       0.612
   23     1665.749 ||    0.122761           2.832       119.674      33.724
   24     1700.454 ||    0.017512           0.404        17.071       4.811
   25     1722.526 ||    0.025033           0.578        24.403       6.877
   26     1875.950 ||    0.042997           0.992        41.916      11.812
   27     3115.374 ||    0.054550           1.259        53.178      14.986
   28     3134.682 ||    0.067714           1.562        66.011      18.602
   29     3154.539 ||    0.041434           0.956        40.392      11.382
   30     3170.193 ||    0.077836           1.796        75.879      21.383
   31     3497.701 ||    0.001104           0.025         1.077       0.303
   32     3558.452 ||    0.001975           0.046         1.925       0.542
   33     3942.255 ||    0.163193           3.765       159.089      44.832
 ----------------------------------------------------------------------------

 Total times  cpu:       18.9s     wall:       19.3s
