 Gaussian 98, Revision A.7,
 Gaussian 98:  HP-PARisc-HPUX-G98RevA.7 11-Apr-1999

 -----------------
 #p nmr rhf/sto-3g
 -----------------

 ----
 test
 ----
 Symbolic Z-matrix:
 Charge =  0 Multiplicity = 1

                         Standard orientation:
 ---------------------------------------------------------------------
 Center     Atomic     Atomic              Coordinates (Angstroms)
 Number     Number      Type              X           Y           Z
 ---------------------------------------------------------------------
    1          6             0        0.900683    0.007286   -0.000030
    2          6             0        0.185745    1.199282   -0.000048
    3          6             0       -1.201455    1.194422    0.000018
    4          6             0       -1.893161   -0.005209    0.000014
    5          6             0       -1.189845   -1.201190   -0.000010
    6          6             0        0.194353   -1.193664    0.000000
    7          1             0        0.718104    2.141643   -0.000029
    8          1             0       -1.742700    2.132189    0.000057
    9          1             0       -2.975424   -0.010141    0.000050
   10          1             0       -1.723661   -2.143214   -0.000012
   11          1             0        0.736325   -2.130781   -0.000024
   12          6             0        2.427971    0.002271    0.000022
   13          1             0        2.811839   -0.510737    0.878619
   14          1             0        2.811914   -0.512785   -0.877335
   15          1             0        2.817856    1.014642   -0.001122
 ---------------------------------------------------------------------

 SCF Done:  E(RHF) =  -266.475680442     A.U. after   12 cycles

  1  C    Isotropic =   118.7192   Anisotropy =   167.9923

  2  C    Isotropic =   124.2578   Anisotropy =   152.2536

  3  C    Isotropic =   124.4033   Anisotropy =   163.6355

  4  C    Isotropic =   126.1838   Anisotropy =   162.4293

  5  C    Isotropic =   124.4897   Anisotropy =   163.8295

  6  C    Isotropic =   124.0710   Anisotropy =   158.3352

  7  H    Isotropic =    25.9531   Anisotropy =     5.8240

  8  H    Isotropic =    25.7432   Anisotropy =     3.6230

  9  H    Isotropic =    25.8492   Anisotropy =     3.1786

 10  H    Isotropic =    25.7314   Anisotropy =     3.6402

 11  H    Isotropic =    25.8979   Anisotropy =     6.1267

 12  C    Isotropic =   219.3928   Anisotropy =    26.7603

 13  H    Isotropic =    31.3356   Anisotropy =    11.4206

 14  H    Isotropic =    31.3350   Anisotropy =    11.4205

 15  H    Isotropic =    31.3809   Anisotropy =    11.3821

 Alpha  occ. eigenvalues --  -11.04376 -11.03611 -11.02670 -11.02656 -11.02405
 Alpha  occ. eigenvalues --  -11.02220 -11.02192  -1.09745  -0.98882  -0.95531
 Alpha  occ. eigenvalues --   -0.88453  -0.77010  -0.74483  -0.64897  -0.58110
 Alpha  occ. eigenvalues --   -0.57731  -0.54331  -0.53222  -0.51298  -0.49911
 Alpha  occ. eigenvalues --   -0.44757  -0.42602  -0.42339  -0.28065  -0.27019
 Alpha virt. eigenvalues --    0.27134   0.27429   0.50523   0.57740   0.63173
 Alpha virt. eigenvalues --    0.64497   0.69840   0.72179   0.72957   0.73988
 Alpha virt. eigenvalues --    0.75411   0.76354   0.88470   0.89646   0.91357

 Normal termination of Gaussian 98.
