 Gaussian 98, Revision A.7,

 ---------------
 #n opt hf 3-21g
 ---------------

 ugh, because jmol can't handle a pre-optimized structure that just doe
 s an nmr calculation alone.
 ----------------------------------------------------------------------
 Symbolic Z-matrix:
 Charge =  0 Multiplicity = 1

 SCF Done:  E(RHF) =  -268.239744426     A.U. after   13 cycles
 SCF Done:  E(RHF) =  -268.240212719     A.U. after   10 cycles
 SCF Done:  E(RHF) =  -268.240223029     A.U. after    9 cycles
 Optimization completed.
    -- Stationary point found.
 Normal termination of Gaussian 98.
 Gaussian 98:  HP-PARisc-HPUX-G98RevA.7 11-Apr-1999

 ----------------------------------------
 #n hf 3-21g nmr geom=allcheck guess=read
 ----------------------------------------

 s an nmr calculation alone.
 ----------------------------------------------------------------------
 Redundant internal coordinates taken from checkpointfile:
 hp_jmol_nmr.chk
 Charge =  0 Multiplicity = 1

                         Standard orientation:
 ---------------------------------------------------------------------
 Center     Atomic     Atomic              Coordinates (Angstroms)
 Number     Number      Type              X           Y           Z
 ---------------------------------------------------------------------
    1          6             0        0.899739    0.008375   -0.000037
    2          6             0        0.186417    1.196684   -0.000031
    3          6             0       -1.199250    1.191402    0.000010
    4          6             0       -1.889737   -0.005853    0.000024
    5          6             0       -1.185686   -1.199134    0.000002
    6          6             0        0.196287   -1.190152   -0.000023
    7          1             0        0.713911    2.130740   -0.000053
    8          1             0       -1.734793    2.120298    0.000014
    9          1             0       -2.961511   -0.011727    0.000042
   10          1             0       -1.712956   -2.132774    0.000008
   11          1             0        0.735007   -2.118542   -0.000045
   12          6             0        2.417607    0.001859    0.000030
   13          1             0        2.798485   -0.507842    0.878724
   14          1             0        2.798588   -0.509809   -0.877466
   15          1             0        2.811008    1.010563   -0.001071
 ---------------------------------------------------------------------

 SCF Done:  E(RHF) =  -268.240223029     A.U. after    1 cycles

  1  C    Isotropic =    86.2306   Anisotropy =   183.0239

  2  C    Isotropic =    93.5131   Anisotropy =   154.0045

  3  C    Isotropic =    93.4525   Anisotropy =   173.8174

  4  C    Isotropic =    96.4808   Anisotropy =   172.2444

  5  C    Isotropic =    93.2987   Anisotropy =   174.3607

  6  C    Isotropic =    93.5474   Anisotropy =   161.1166

  7  H    Isotropic =    26.4777   Anisotropy =     4.5559

  8  H    Isotropic =    26.3523   Anisotropy =     2.4632

  9  H    Isotropic =    26.4633   Anisotropy =     2.3301

 10  H    Isotropic =    26.2818   Anisotropy =     2.5917

 11  H    Isotropic =    26.3579   Anisotropy =     5.1144

 12  C    Isotropic =   192.8594   Anisotropy =    32.8818

 13  H    Isotropic =    31.1352   Anisotropy =     9.9611

 14  H    Isotropic =    31.1357   Anisotropy =     9.9603

 15  H    Isotropic =    31.7816   Anisotropy =     9.5836

 Alpha  occ. eigenvalues --  -11.18455 -11.17315 -11.17278 -11.16988 -11.16952
 Alpha  occ. eigenvalues --  -11.16925 -11.16256  -1.15877  -1.04505  -1.01359
 Alpha  occ. eigenvalues --   -0.93574  -0.82732  -0.80038  -0.70220  -0.63892
 Alpha  occ. eigenvalues --   -0.62774  -0.58878  -0.57829  -0.56909  -0.53990
 Alpha  occ. eigenvalues --   -0.49373  -0.48358  -0.48166  -0.33688  -0.32629
 Alpha virt. eigenvalues --    0.15044   0.15654   0.26225   0.29911   0.31412
 Alpha virt. eigenvalues --    0.33813   0.34141   0.35668   0.37927   0.38471
 Alpha virt. eigenvalues --    0.40814   0.44123   0.51637   0.53292   0.53820

 Normal termination of Gaussian 98.
